./rings_data/2_C/98_242/vis.dat


8194 atoms
0 bonds
0 angles
0 dihedrals
0 impropers

2 atom types
0 bond types
0 angle types
0 dihedral types
0 improper types


0.000      50.6432 xlo xhi
0.000      50.6432 ylo yhi
0.000      50.6432 zlo zhi


Atoms

1 1 13.4213 32.4608 26.1122
2 1 13.4279 32.4338 35.6106
3 1 13.4363 32.4584 16.6413
4 1 13.4372 35.6175 26.1417
5 1 13.4232 29.2878 35.6087
6 1 13.4397 22.9591 35.6081
7 1 13.4229 26.1219 35.6069
8 1 13.4379 22.9614 32.4316
9 1 13.4252 22.956 29.2887
10 1 13.4228 26.1149 26.1185
11 1 13.4157 29.2885 32.4392
12 1 13.4321 26.1176 32.4328
13 1 13.4341 22.9331 22.9516
14 1 13.4375 35.6086 35.6073
15 1 13.4295 32.4607 32.4376
16 1 13.4208 29.292 29.2798
17 1 13.4272 35.6269 16.623
18 1 13.4341 35.6395 19.7981
19 1 13.4409 32.4853 19.7991
20 1 13.4259 35.6066 32.446
21 1 13.447 35.6355 22.9591
22 1 13.4329 32.4517 29.2905
23 1 13.4638 35.6269 29.2935
24 1 13.4265 22.9534 26.1218
25 1 13.4607 26.1167 22.9642
26 1 13.4218 26.1182 29.2736
27 1 13.4207 22.9624 19.8012
28 1 13.4171 35.6017 10.3109
29 1 13.4552 29.298 22.9633
30 1 13.4216 35.6323 13.4608
31 1 13.423 32.4649 10.2942
32 1 13.4481 32.4731 22.969
33 1 13.4251 29.2838 26.1096
34 1 13.4285 26.1151 10.2899
35 1 13.4723 26.1074 19.7999
36 1 13.4205 29.2889 13.4656
37 1 13.4798 29.3066 19.8018
38 1 13.4432 29.2988 16.6458
39 1 13.4354 26.1308 16.6494
40 1 13.419 29.2853 10.3033
41 1 13.4093 26.1192 13.4603
42 1 13.409 32.4566 13.4654
43 1 13.4217 22.9623 16.6332
44 1 13.4095 22.956 13.4556
45 1 13.4352 22.9184 10.2461
46 1 14.9879 24.5284 15.0356
47 1 18.1627 27.7358 24.5786
48 1 15.0133 24.535 24.5602
49 1 15.0072 24.5467 34.021
50 1 15.0116 24.5231 37.1868
51 1 15.0026 27.7077 11.872
52 1 14.9945 27.7069 15.0349
53 1 16.6489 29.3392 19.8107
54 1 15.015 27.698 34.0264
55 1 15.0195 27.7023 37.1919
56 1 14.9985 30.8836 11.8551
57 1 15.0014 30.897 15.017
58 1 15.0163 30.8916 18.2156
59 1 15.0119 34.0599 21.3926
60 1 16.6083 35.6236 26.1286
61 1 15.0158 30.8802 34.033
62 1 15.0069 30.8554 37.197
63 1 15.0141 34.0359 11.876
64 1 15.017 34.0528 15.0382
65 1 15.004 34.0593 18.2046
66 1 16.6125 35.6149 29.2965
67 1 15.0145 34.0338 34.0378
68 1 15.0117 34.0402 37.2075
69 1 15.0322 37.1902 37.1903
70 1 19.7444 22.9356 10.2511
71 1 16.5828 22.9263 13.4109
72 1 16.5961 26.1046 10.2647
73 1 18.1604 24.5039 11.8323
74 1 16.5616 26.085 16.5763
75 1 15.0162 24.5341 18.1983
76 1 18.2004 24.5646 18.2332
77 1 16.5609 22.8999 23.0055
78 1 18.1353 24.4838 24.5838
79 1 18.159 24.5288 27.7286
80 1 18.1768 24.5304 30.8714
81 1 18.1893 24.5327 34.037
82 1 16.5947 22.954 35.607
83 1 14.9899 24.5195 11.8416
84 1 18.1582 27.7112 11.8478
85 1 16.5778 26.1094 13.4274
86 1 18.1436 27.7362 14.9862
87 1 17.9546 27.7447 18.1097
88 1 15.0852 27.7101 21.3843
89 1 15.0178 27.7037 30.8629
90 1 21.38 27.656 24.5151
91 1 16.5909 29.2896 26.1422
92 1 16.5828 26.1142 26.1392
93 1 16.5845 29.2861 29.2888
94 1 16.5936 26.1242 29.2967
95 1 18.1757 27.7139 30.8822
96 1 16.6051 26.1202 32.4562
97 1 18.178 27.7031 34.028
98 1 16.5912 26.1137 35.6105
99 1 18.1794 27.7041 37.186
100 1 16.5916 29.2755 10.2752
101 1 18.1571 30.8918 11.8491
102 1 16.583 29.3002 13.4307
103 1 18.1779 30.8609 15.0373
104 1 16.5718 29.3353 16.5707
105 1 18.1378 30.9227 18.147
106 1 18.2718 27.6645 21.3235
107 1 18.1738 30.9171 21.4051
108 1 15.0373 30.8862 21.3817
109 1 19.7632 29.298 26.1225
110 1 19.7666 32.4533 26.1217
111 1 19.7715 29.2897 29.2995
112 1 18.1826 30.8743 30.8792
113 1 18.1801 30.8684 34.0368
114 1 19.7623 32.4546 35.6203
115 1 16.5977 29.2938 35.62
116 1 18.1786 30.8629 37.1861
117 1 16.5876 32.4645 10.2814
118 1 18.1883 34.0418 11.8536
119 1 16.6018 32.4656 13.4732
120 1 18.1581 34.0395 15.0131
121 1 16.5755 32.498 16.5858
122 1 18.1765 34.0731 18.2069
123 1 16.5925 32.4757 19.7891
124 1 18.1932 34.0659 21.393
125 1 16.6036 32.4791 22.9781
126 1 18.1843 34.0465 24.5399
127 1 15.0199 34.043 24.5522
128 1 18.1875 34.05 27.7119
129 1 16.61 32.4387 29.2945
130 1 15.026 34.0183 30.8613
131 1 16.5862 32.4564 32.4485
132 1 19.7629 32.4612 32.4516
133 1 16.6109 32.4435 35.6022
134 1 18.1897 34.0256 37.192
135 1 16.6007 35.6209 10.2797
136 1 16.5918 35.6296 13.4537
137 1 16.5897 35.63 16.6148
138 1 16.6019 35.6328 19.7968
139 1 16.595 35.6348 22.9542
140 1 16.5946 35.6088 35.6064
141 1 22.9247 26.1197 10.2923
142 1 22.9248 22.9272 10.2781
143 1 21.3774 24.5574 15.0327
144 1 19.6501 26.1198 16.4758
145 1 21.2986 24.4863 18.1428
146 1 22.831 26.1957 19.8742
147 1 18.1502 24.5072 14.995
148 2 20.2259 25.2875 20.6145
149 1 19.5844 26.0958 23.0829
150 1 21.2744 24.4699 24.7624
151 1 21.327 24.5142 27.6656
152 1 21.3501 24.5303 30.8601
153 1 21.3357 24.539 34.0267
154 1 21.3469 24.5278 37.1982
155 1 19.7418 26.1178 10.2718
156 1 21.322 27.7192 11.9029
157 1 19.7143 26.0812 13.419
158 1 21.2848 27.7552 14.794
159 1 16.5857 26.1221 19.7989
160 2 22.0706 28.8061 18.9492
161 1 15.0631 24.5192 21.3785
162 2 23.7285 28.8021 20.6097
163 2 20.2225 26.9425 18.9344
164 1 19.716 26.1324 26.1614
165 1 18.1647 27.7153 27.7182
166 1 21.3346 27.7118 27.7203
167 1 19.7609 26.1061 29.2873
168 1 21.3587 27.6984 30.8561
169 1 19.7549 26.136 32.4481
170 1 21.3423 27.6978 34.0269
171 1 19.7586 26.1097 35.6116
172 1 21.3468 27.6979 37.2031
173 1 18.1998 24.5415 37.1962
174 1 19.7641 29.2919 10.2877
175 1 21.3556 30.8718 11.8429
176 1 19.7164 29.344 13.4069
177 1 21.313 30.9033 14.9969
178 1 19.8259 29.2276 16.6586
179 1 21.2832 31.1085 18.145
180 1 19.6034 29.4077 19.7648
181 1 19.7241 29.3282 22.9924
182 1 21.2022 27.7807 21.4299
183 1 21.3169 30.9034 24.5669
184 1 21.341 30.8855 27.7218
185 1 22.9264 32.4639 26.1274
186 1 22.9448 32.4582 29.308
187 1 21.3552 30.8717 30.8769
188 1 19.7709 29.2857 32.4512
189 1 21.3574 30.864 34.0322
190 1 19.7739 29.2835 35.6103
191 1 21.3517 30.8622 37.1882
192 1 19.7619 32.4673 10.28
193 1 21.3372 34.0357 11.8642
194 1 19.7544 32.4827 13.43
195 1 21.3435 34.0533 15.0175
196 1 19.718 32.4917 16.5704
197 1 21.331 34.0052 18.1861
198 1 19.7305 32.4966 19.8035
199 1 21.354 34.0328 21.369
200 1 19.7774 32.4745 22.9512
201 1 21.3408 34.0535 24.5536
202 1 16.5978 32.4607 26.1302
203 1 19.7708 35.6194 29.2906
204 1 18.1862 30.8736 27.7011
205 1 18.178 34.0257 30.8602
206 1 19.7729 32.4594 29.2922
207 1 21.3543 34.0507 34.0465
208 1 21.3424 34.0257 37.2061
209 1 19.7551 35.6195 10.2861
210 1 19.7696 35.6308 13.449
211 1 19.7665 35.6312 16.6109
212 1 19.7637 35.6349 19.7837
213 1 19.7707 35.6232 22.9565
214 1 19.7696 35.6222 26.1282
215 1 19.7704 35.6142 32.4626
216 1 19.7717 35.6187 35.6115
217 1 24.5048 24.4985 11.8883
218 1 24.5708 24.4668 14.7688
219 2 25.6478 25.2853 18.9292
220 1 24.5571 24.499 21.4025
221 1 24.4619 24.5833 24.5063
222 1 24.5078 24.5233 27.7068
223 1 24.5086 24.5304 30.8618
224 1 22.9301 22.9513 32.441
225 1 24.5108 24.5227 34.0282
226 1 22.9277 22.9381 35.6198
227 1 24.5126 24.5302 37.1851
228 1 24.4718 27.7169 11.8689
229 1 21.325 24.5115 11.874
230 1 24.4781 27.6286 15.0277
231 2 22.1172 26.9393 17.0869
232 1 24.5388 27.7208 18.1489
233 2 23.7574 23.3919 18.9308
234 2 23.7193 26.9365 22.4684
235 2 22.0544 25.3098 22.4799
236 1 24.564 27.767 24.7708
237 1 22.9287 26.1209 26.1512
238 1 24.5319 27.7115 27.6719
239 1 22.9447 26.123 29.2747
240 1 24.5099 27.6966 30.8572
241 1 22.9329 26.117 32.4388
242 1 24.5219 27.7034 34.0345
243 1 22.9411 26.1342 35.6152
244 1 24.5015 27.7026 37.208
245 1 22.9338 29.2938 10.275
246 1 22.9596 29.3205 13.416
247 1 24.5302 30.87 15.0163
248 1 22.9159 29.3849 16.5007
249 1 24.4626 30.84 18.2409
250 1 21.3847 30.8483 21.312
251 1 24.5671 31.0976 21.426
252 1 22.9378 29.4005 23.0662
253 1 26.1416 32.4834 23.0006
254 1 22.8939 29.3156 26.1538
255 1 24.5259 30.9 27.711
256 1 22.9186 29.282 29.2956
257 1 24.514 30.8788 30.8821
258 1 22.9364 29.2828 32.4601
259 1 24.5205 30.8769 34.0363
260 1 22.9365 29.2701 35.6163
261 1 24.5172 30.8703 37.1961
262 1 22.9463 32.4357 10.2688
263 1 24.5259 34.0416 11.8672
264 1 22.9363 32.4812 13.4296
265 1 24.491 34.0457 15.0358
266 1 22.9528 32.4855 16.5977
267 1 24.5219 34.0482 18.1925
268 1 22.9264 32.4973 19.7907
269 1 24.5293 33.9904 21.3939
270 1 22.9038 32.4935 22.9919
271 1 24.5258 34.0461 24.5498
272 1 24.5557 30.9019 24.5598
273 1 24.5166 34.0359 27.7037
274 1 21.362 34.0414 27.7249
275 1 24.5136 34.0386 30.8731
276 1 22.933 32.4527 32.4382
277 1 24.5106 34.0344 34.0489
278 1 22.939 32.4479 35.6252
279 1 24.5225 34.0202 37.1866
280 1 22.9388 35.6259 10.2831
281 1 22.9249 35.6253 13.4573
282 1 22.9316 35.6149 16.6222
283 1 22.924 35.6279 19.7872
284 1 22.9498 35.6226 22.9532
285 1 22.9295 35.6226 26.1338
286 1 22.9289 35.6261 29.2871
287 1 21.3543 34.0363 30.8834
288 1 22.9298 35.6234 32.4468
289 1 22.9468 35.6191 35.6104
290 1 27.7144 24.4626 11.8492
291 1 26.1372 22.8914 13.396
292 1 27.696 24.5022 14.9625
293 1 27.6506 24.5738 21.3045
294 1 27.693 24.5108 24.5575
295 1 27.6967 24.5153 27.7001
296 1 26.0938 22.9475 29.287
297 1 27.6917 24.5399 30.8628
298 1 26.0901 22.9494 32.4499
299 1 27.6669 24.5244 34.0329
300 1 26.0953 22.9504 35.6062
301 1 27.6771 24.5319 37.202
302 1 26.1141 26.1247 10.3837
303 1 26.15 26.162 13.3138
304 1 26.2003 26.0955 16.4726
305 1 27.6898 27.7101 15.0222
306 2 23.7638 25.278 17.0501
307 2 25.5831 26.9223 20.5917
308 1 26.1957 26.1382 23.0687
309 1 27.7092 27.7248 24.559
310 1 26.1201 26.0902 26.1471
311 1 27.69 27.7037 27.7213
312 1 26.0898 26.1287 29.2929
313 1 27.6796 27.7085 30.8643
314 1 26.0929 26.1199 32.4489
315 1 27.6839 27.713 34.0315
316 1 26.0932 26.1045 35.6149
317 1 27.6753 27.6991 37.196
318 1 26.1022 29.2799 10.3069
319 1 26.0971 29.2677 13.4361
320 1 27.6721 30.8495 15.0123
321 1 26.0806 29.2951 16.6085
322 1 27.6931 30.8788 18.186
323 1 26.1906 29.3826 19.7963
324 1 27.6834 30.9 21.3954
325 1 26.0174 29.2265 22.8918
326 1 27.6573 30.8575 24.5312
327 1 26.1401 29.3338 26.14
328 1 27.6997 30.8849 27.7135
329 1 26.104 29.2877 29.2884
330 1 27.6894 30.8684 30.8708
331 1 26.0978 29.287 32.4637
332 1 27.6735 30.8572 34.0381
333 1 26.091 29.2772 35.599
334 1 27.6881 30.8599 37.1966
335 1 26.0832 32.4507 10.3234
336 1 24.5216 30.8816 11.8543
337 1 27.6668 34.0357 11.8505
338 1 26.1167 32.4739 13.4677
339 1 26.0992 32.4355 16.6097
340 1 26.1353 32.478 19.7735
341 1 27.6915 34.0473 21.3661
342 1 26.1056 32.4694 26.1484
343 1 27.6875 34.0521 27.7263
344 1 26.0995 32.463 29.2867
345 1 27.6885 34.0453 30.8789
346 1 26.0874 32.4437 32.4554
347 1 27.6889 34.0453 34.0418
348 1 26.0959 32.4565 35.6125
349 1 27.6868 34.0371 37.1878
350 1 26.0789 35.6201 10.2889
351 1 26.1072 35.6044 13.474
352 1 26.1077 35.6065 16.5987
353 1 26.0968 35.6268 19.7988
354 1 26.0964 35.6216 22.9581
355 1 26.1051 35.6287 26.1328
356 1 26.1135 35.6349 29.2936
357 1 26.1113 35.6176 32.4541
358 1 26.1105 35.6198 35.6133
359 1 14.9959 30.8616 30.8551
360 1 16.6106 29.2949 32.4378
361 1 22.9247 26.1148 13.3974
362 1 27.7013 34.0503 24.5476
363 1 15.0079 30.8761 27.7063
364 1 19.8348 23.0005 22.8879
365 1 16.6317 29.2837 22.9541
366 1 15.0059 24.5326 27.7025
367 1 18.1798 34.0331 34.0423
368 1 16.6066 35.6075 32.446
369 1 26.089 22.9207 10.2738
370 1 19.762 22.9527 32.4456
371 1 18.1705 30.9042 24.5634
372 1 27.6678 30.896 11.8729
373 1 16.651 26.137 22.9985
374 1 15.0779 27.7376 18.2072
375 1 27.6889 34.0427 18.2267
376 1 19.7625 22.9515 35.6171
377 1 15.0242 37.1859 34.037
378 1 27.9104 24.4553 18.1246
379 1 16.5929 22.9489 16.6104
380 1 22.9126 22.9611 29.2867
381 1 19.6549 22.8152 19.7774
382 1 27.6774 37.1928 30.8694
383 1 24.5374 37.2098 30.8667
384 1 17.9498 24.448 21.4194
385 1 19.7615 22.9539 29.2946
386 1 27.6824 37.2154 24.5366
387 1 15.0053 24.5379 30.8672
388 1 26.1044 22.9536 22.9492
389 1 21.358 37.2014 37.2088
390 1 27.702 37.1999 37.1903
391 1 26.0769 22.9593 26.1005
392 1 24.5264 37.1977 37.1928
393 1 22.9466 22.9198 26.1549
394 1 19.713 22.9012 26.1553
395 1 26.2081 22.843 19.7672
396 1 18.1824 37.1895 37.2051
397 1 18.1838 37.1992 30.8689
398 1 24.5174 37.2009 34.0463
399 1 27.6928 37.2034 21.3706
400 1 16.5568 22.9115 19.7474
401 1 22.9025 22.8485 23.0625
402 1 24.5169 37.2208 24.5353
403 1 15.0015 27.7073 27.7018
404 1 15.0182 30.8762 24.5507
405 1 27.6378 27.6479 18.2374
406 2 22.1139 23.4516 20.5873
407 1 21.3514 37.2074 24.5387
408 1 27.6797 37.2075 18.1949
409 1 24.5167 37.1917 21.3684
410 1 15.0242 37.2031 24.5544
411 1 24.5208 37.2104 27.7032
412 1 15.0211 37.213 27.7141
413 1 27.6815 37.1934 11.8939
414 1 24.5193 37.1998 18.1934
415 1 27.8872 27.7546 21.4188
416 1 27.6861 37.2298 15.0338
417 1 24.5223 37.1853 15.0436
418 1 24.521 37.1929 11.8767
419 1 18.1931 37.2201 21.3648
420 1 22.9423 22.8212 16.4825
421 1 27.6931 37.2127 27.7019
422 1 16.5941 22.9578 32.4451
423 1 21.3514 37.2047 21.3699
424 1 21.3603 37.2054 18.1997
425 1 18.1797 37.2121 18.2133
426 1 21.3486 37.2092 15.0376
427 1 15.0036 34.0499 27.7081
428 1 21.3402 37.2165 11.882
429 1 15.0168 37.2263 21.3701
430 1 16.5813 22.9525 29.2936
431 1 18.1777 37.2019 15.0407
432 1 21.3446 37.1996 34.0307
433 1 22.9099 22.8997 13.3998
434 1 15.0114 37.2043 15.0425
435 1 15.0242 37.2047 18.1972
436 1 15.0023 37.2138 11.8756
437 1 21.3587 37.1904 30.8836
438 1 18.1808 37.197 34.0289
439 1 21.3496 37.2051 27.7047
440 1 18.1755 37.2075 11.864
441 1 18.1776 37.2077 27.7156
442 1 18.2007 37.2099 24.5436
443 1 15.0191 37.2044 30.8621
444 1 16.5579 22.9382 26.149
445 1 15.0127 27.7132 24.5407
446 1 16.5711 22.9259 10.2481
447 1 26.0323 23.0059 16.6558
448 1 27.6886 37.1996 34.0388
449 1 19.7506 22.9292 16.5926
450 1 19.7427 22.9485 13.4441
451 1 30.8523 24.5265 11.8802
452 1 29.2862 22.9322 13.4214
453 1 29.2949 22.9037 16.5609
454 1 30.7912 24.5314 18.1822
455 1 29.2821 22.9159 19.8079
456 1 30.8421 24.526 21.3666
457 1 29.24 22.9676 22.9218
458 1 30.846 24.5278 24.5412
459 1 30.8424 24.5482 27.7208
460 1 29.2555 22.9466 29.2801
461 1 30.8445 24.5415 30.8638
462 1 29.2489 22.9589 32.4528
463 1 30.8399 24.5399 34.0388
464 1 29.2519 22.9639 35.6082
465 1 30.8331 24.5301 37.198
466 1 29.2662 26.1239 10.2879
467 1 30.8667 27.6925 11.8643
468 1 29.256 26.1359 13.4003
469 1 30.8433 27.7029 15.0166
470 1 29.2979 26.1426 16.5611
471 1 30.8387 27.6967 18.1803
472 1 29.3035 26.1182 19.7798
473 1 30.7977 27.7102 21.3772
474 1 30.8591 27.7008 24.5478
475 1 29.2706 26.1202 26.1331
476 1 30.8587 27.706 27.7049
477 1 29.2669 26.1168 29.2923
478 1 30.8449 27.7002 30.8701
479 1 29.2666 26.1181 32.4402
480 1 30.8472 27.7058 34.0371
481 1 29.2585 26.1172 35.6149
482 1 30.8468 27.7066 37.2
483 1 30.83 30.8775 11.8699
484 1 29.2417 29.2686 13.4162
485 1 32.4211 32.4451 16.6176
486 1 29.2501 29.2676 16.6367
487 1 30.8383 30.8807 18.1838
488 1 30.8539 30.8709 21.3637
489 1 29.2929 29.3205 22.9952
490 1 30.8635 30.8846 24.5571
491 1 29.2891 29.3063 26.1308
492 1 30.8487 30.8794 27.6996
493 1 29.2643 29.2976 29.2993
494 1 30.8468 30.8814 30.8683
495 1 29.2723 29.2785 32.4578
496 1 30.8366 30.8633 34.0361
497 1 29.266 29.2812 35.6213
498 1 30.841 30.8657 37.2018
499 1 29.2536 32.4508 10.287
500 1 30.8189 34.0343 11.8656
501 1 29.2363 32.4724 13.4578
502 1 30.8753 34.036 15.0424
503 1 29.2415 32.4694 16.594
504 1 30.8308 34.03 18.1936
505 1 30.8453 34.0397 21.3814
506 1 29.2777 32.4737 22.9762
507 1 30.8416 34.047 24.5364
508 1 29.2743 32.445 26.1246
509 1 30.8538 34.0385 27.7072
510 1 29.2676 32.4592 29.2889
511 1 30.8495 34.0354 30.8669
512 1 29.2741 32.448 32.4375
513 1 30.8551 34.0262 34.0296
514 1 29.2703 32.441 35.6282
515 1 30.8654 34.0417 37.1903
516 1 29.2617 35.6163 10.2868
517 1 29.2489 35.6074 16.5928
518 1 29.2541 35.6239 19.7822
519 1 29.2767 35.6334 26.1234
520 1 29.2701 35.6141 29.2977
521 1 29.2559 35.6188 32.4603
522 1 30.8554 37.2074 34.0332
523 1 29.2684 35.6151 35.6072
524 1 30.8653 37.2187 37.1926
525 1 32.4087 22.9603 10.2805
526 1 34.0008 24.5473 11.8699
527 1 32.4286 22.9553 13.4389
528 1 34.0101 24.5288 15.0369
529 1 32.4333 22.947 16.6116
530 1 33.9985 24.5372 18.188
531 1 32.4266 22.9407 19.784
532 1 34.0071 24.5371 21.3722
533 1 32.4223 22.9556 22.9592
534 1 33.9989 24.5304 24.532
535 1 32.4297 22.9383 26.1201
536 1 34.0193 24.5355 27.6976
537 1 32.4234 22.944 29.291
538 1 34.0073 24.5288 30.8698
539 1 32.4391 22.9554 32.4547
540 1 34.0038 24.534 34.032
541 1 32.4287 22.9376 35.6114
542 1 34.0156 24.5395 37.1984
543 1 32.4028 26.0947 10.273
544 1 34.0138 27.6861 11.8725
545 1 32.4327 26.1237 13.4496
546 1 34.0017 27.6961 15.0446
547 1 30.8493 24.5227 15.0112
548 1 32.4304 26.1144 16.6102
549 1 32.4177 26.1171 19.7839
550 1 33.9978 27.7036 21.3666
551 1 32.4206 26.1158 22.9511
552 1 34.0164 27.7025 24.5434
553 1 32.4371 26.1248 26.1233
554 1 34.0158 27.6924 27.7101
555 1 32.4251 26.1167 29.2767
556 1 34.0138 27.703 30.8739
557 1 32.4367 26.1224 32.4597
558 1 34.0139 27.6982 34.0312
559 1 32.4347 26.1221 35.6147
560 1 34.0083 27.6901 37.1961
561 1 32.406 29.2982 10.2881
562 1 32.4177 32.4525 13.4517
563 1 32.4209 29.2908 13.4472
564 1 33.9992 30.876 15.0387
565 1 32.412 29.2882 16.619
566 1 35.5945 32.4422 16.6146
567 1 32.4148 29.2771 19.7901
568 1 34.0206 30.8748 21.371
569 1 32.4263 29.2858 22.9624
570 1 34.0144 30.8683 24.5373
571 1 32.4409 29.2807 26.1164
572 1 34.0174 30.8633 27.7024
573 1 32.4313 29.2846 29.2915
574 1 34.0209 30.8765 30.8677
575 1 32.4312 29.2829 32.4443
576 1 34.022 30.8791 34.0347
577 1 32.4219 29.2727 35.6198
578 1 34.0201 30.8592 37.1872
579 1 32.406 32.4492 10.2958
580 1 34.0007 34.0403 11.8734
581 1 30.8459 30.8581 15.0291
582 1 34.012 34.0282 15.0406
583 1 34.004 34.0237 18.2048
584 1 34.0101 27.6848 18.1933
585 1 33.9998 34.0252 21.3723
586 1 32.4336 32.4731 22.956
587 1 34.0258 34.0307 24.5386
588 1 32.4277 32.4478 26.1138
589 1 32.4335 35.6142 29.2875
590 1 32.4351 32.4478 29.2917
591 1 34.0124 34.0432 30.8573
592 1 32.423 32.4469 32.4622
593 1 34.0263 34.0273 34.0453
594 1 32.435 32.4645 35.6254
595 1 34.0097 34.0368 37.1908
596 1 32.4108 35.6185 10.2927
597 1 32.4139 35.6173 13.4482
598 1 35.591 35.6118 16.613
599 1 32.4204 35.6272 16.6273
600 1 32.4339 35.6062 19.7856
601 1 32.4261 35.6126 22.9489
602 1 34.0186 37.2074 24.5379
603 1 32.434 35.6296 26.1278
604 1 34.0176 37.2071 27.6954
605 1 30.8584 37.2123 30.8838
606 1 34.0188 37.2039 30.8717
607 1 32.4348 35.618 32.4517
608 1 34.0132 37.197 34.021
609 1 32.4371 35.6141 35.6025
610 1 34.0293 37.2 37.1914
611 1 35.5993 22.9507 10.2945
612 1 37.1747 24.539 11.8671
613 1 35.5939 22.9412 13.4634
614 1 37.1695 24.5299 15.0422
615 1 35.5956 22.9482 16.617
616 1 37.1722 24.5406 18.2088
617 1 35.5806 22.9455 19.7975
618 1 37.1786 24.5435 21.3652
619 1 35.5948 22.9499 22.9444
620 1 37.173 24.5345 24.5329
621 1 35.5917 22.9477 26.1146
622 1 37.1723 24.5368 27.7013
623 1 35.5932 22.9549 29.2911
624 1 37.1776 24.5406 30.8633
625 1 35.5835 22.9566 32.4592
626 1 37.1785 24.5349 34.0484
627 1 35.5909 22.9702 35.6262
628 1 37.1709 24.5304 37.1921
629 1 35.5823 26.1317 10.3083
630 1 37.1719 27.701 11.883
631 1 35.5867 26.1289 13.4551
632 1 37.1734 27.6979 15.0485
633 1 35.5871 26.1194 16.618
634 1 37.1767 27.6997 18.2071
635 1 35.575 26.1183 19.7913
636 1 37.1699 27.6997 21.3783
637 1 35.5899 26.1283 22.9422
638 1 37.1775 27.6949 24.5267
639 1 35.5939 26.1177 26.1181
640 1 37.1727 27.7013 27.7058
641 1 35.5955 26.1114 29.2971
642 1 37.1736 27.7029 30.873
643 1 35.5895 26.1261 32.4454
644 1 37.1769 27.6993 34.0336
645 1 35.5885 26.1181 35.6136
646 1 37.1762 27.708 37.1975
647 1 35.5722 29.2907 10.2884
648 1 37.1656 30.8739 11.88
649 1 33.9973 30.8627 11.8747
650 1 35.5881 29.2733 13.459
651 1 33.9926 30.8667 18.1963
652 1 35.5751 29.2926 19.7876
653 1 37.1732 30.863 21.3723
654 1 35.5994 29.2807 22.96
655 1 35.6015 32.4474 26.1265
656 1 35.5912 29.283 26.1171
657 1 37.1794 30.8653 27.7018
658 1 35.5865 29.2982 29.286
659 1 37.1782 30.8642 30.8722
660 1 35.5951 29.2796 32.4523
661 1 37.1633 30.8703 34.0375
662 1 35.6098 29.2857 35.6287
663 1 37.1823 30.8587 37.1972
664 1 35.581 32.4493 10.2896
665 1 37.159 34.0363 11.882
666 1 35.58 32.4599 13.4674
667 1 37.1586 34.0257 15.0348
668 1 35.5887 29.2801 16.6221
669 1 35.585 32.4521 19.7919
670 1 32.4395 32.4478 19.7886
671 1 37.1824 34.0364 21.3697
672 1 35.5815 32.4598 22.9433
673 1 37.1714 34.0327 24.5402
674 1 34.0248 34.0448 27.7072
675 1 37.1855 34.0302 27.7047
676 1 35.6044 32.4549 29.2879
677 1 37.1855 34.0376 30.8631
678 1 35.595 32.4434 32.4484
679 1 37.1871 34.0335 34.0278
680 1 35.5927 32.4387 35.611
681 1 37.1831 34.036 37.192
682 1 35.5759 35.6124 10.2939
683 1 35.5827 35.6233 13.4576
684 1 37.1791 34.036 18.2113
685 1 35.5847 35.6256 19.7879
686 1 37.1885 37.1972 21.3659
687 1 35.5891 35.608 22.968
688 1 37.1774 37.1992 24.5407
689 1 35.5861 35.6207 26.1065
690 1 37.1773 37.2059 27.6978
691 1 35.5963 35.5974 29.3032
692 1 37.1967 37.1998 30.8655
693 1 35.5903 35.6201 32.4517
694 1 37.1784 37.2028 34.0275
695 1 35.6122 35.6195 35.6192
696 1 37.1781 37.2018 37.1827
697 1 37.1734 30.857 24.554
698 1 37.1589 30.873 18.2005
699 1 37.1628 30.8797 15.0419
700 1 29.2687 32.462 19.7828
701 1 29.2598 22.9458 26.1232
702 1 29.2406 35.6073 13.4841
703 1 29.3041 22.9437 10.2517
704 1 34.002 37.207 21.3767
705 1 37.1738 37.2033 18.2109
706 1 37.1685 37.1999 11.874
707 1 30.8548 37.1943 21.3653
708 1 29.2675 35.6191 22.9518
709 1 29.2917 29.3155 19.7599
710 1 30.8257 37.1829 11.8834
711 1 30.8579 37.1993 24.5374
712 1 29.2929 26.0935 22.9817
713 1 30.8613 37.2016 27.6871
714 1 34.0149 37.2006 18.213
715 1 33.999 37.2045 15.0414
716 1 30.8236 37.2003 18.1933
717 1 34.0064 37.1843 11.8791
718 1 37.1605 37.1907 15.044
719 1 30.8388 37.1927 15.0374
720 1 29.2099 29.263 10.3016
721 1 13.4236 13.4531 35.5976
722 1 13.4278 13.4515 32.4414
723 1 13.4264 16.6224 35.5951
724 1 13.4209 19.7739 32.4504
725 1 13.4311 19.7867 35.6086
726 1 13.4201 19.7907 29.2842
727 1 13.4136 16.6164 26.1111
728 1 13.4336 13.4484 29.2733
729 1 13.423 13.4476 19.7828
730 1 13.4174 16.6174 19.777
731 1 13.4312 13.4473 26.1073
732 1 13.4323 13.447 22.9349
733 1 13.4156 19.7809 19.7753
734 1 13.4521 13.4521 10.2869
735 1 13.4395 13.4614 16.6009
736 1 13.4178 16.6149 22.946
737 1 13.4279 16.6043 29.2667
738 1 13.4399 16.6001 10.3298
739 1 13.4121 19.7854 16.6102
740 1 13.4084 19.7803 26.1121
741 1 13.4147 19.7794 22.9614
742 1 13.4276 16.6159 32.4371
743 1 13.3896 19.7904 13.4547
744 1 13.4362 13.4535 13.4532
745 1 13.3988 19.7254 10.1762
746 1 13.4181 16.6273 16.6119
747 1 13.4146 16.6145 13.4617
748 1 15.0116 15.0182 11.8612
749 1 15.0093 15.0358 18.1973
750 1 15.0001 15.0368 21.3619
751 1 15.0001 15.0299 24.5314
752 1 15.0089 15.0302 27.7
753 1 15.0165 15.041 30.8563
754 1 15.0013 15.0278 34.0287
755 1 15.006 15.0356 37.1769
756 1 15.0015 18.1755 24.5459
757 1 15.0019 18.1921 27.6996
758 1 15.0036 18.1975 30.8733
759 1 15.0098 18.1977 34.0175
760 1 15.0231 18.19 37.1829
761 1 15.0208 21.3703 34.0321
762 1 15.0135 21.379 37.1711
763 1 16.6082 13.4294 10.2812
764 1 18.1851 15.0296 11.8467
765 1 18.1653 18.1876 11.8316
766 1 16.5888 16.6201 13.4356
767 1 16.5901 13.4532 16.6183
768 1 18.1729 15.0216 18.1973
769 1 16.5925 13.4472 19.7599
770 1 18.1799 15.0388 21.3669
771 1 16.5883 13.4358 22.9465
772 1 18.1643 15.0272 24.5203
773 1 16.5942 13.442 26.1064
774 1 18.1676 15.0389 27.7003
775 1 16.5879 13.4344 29.2662
776 1 18.1844 15.0313 30.8603
777 1 16.5935 13.4454 32.441
778 1 18.177 15.0326 34.0202
779 1 16.6003 13.4546 35.5964
780 1 18.1838 15.0364 37.1857
781 1 14.9912 18.1953 15.0223
782 1 18.1648 18.1801 15.017
783 1 19.7693 16.6193 16.588
784 1 16.5892 16.6101 19.777
785 1 18.1487 18.163 21.3646
786 1 16.5792 16.6149 22.9415
787 1 18.1548 18.1728 24.5466
788 1 16.587 16.6145 26.1148
789 1 18.1698 18.1799 27.7062
790 1 16.5888 16.6199 29.2741
791 1 18.1771 18.1988 30.868
792 1 16.5832 16.6072 32.4439
793 1 18.1839 18.2044 34.032
794 1 16.601 16.6337 35.6026
795 1 18.1774 18.201 37.1928
796 1 15.0038 18.1977 11.8348
797 1 19.7611 19.7954 16.6042
798 1 21.2875 21.1362 21.4185
799 1 16.5741 19.7766 22.9608
800 1 16.5849 19.7751 26.1181
801 1 18.1609 21.3477 27.7166
802 1 16.5921 19.7856 29.2722
803 1 18.1754 21.3602 30.889
804 1 16.5956 19.7777 32.4439
805 1 18.1734 21.3673 34.0248
806 1 16.5987 19.7877 35.6009
807 1 18.1706 21.3693 37.1958
808 1 19.7459 16.6088 10.2508
809 1 16.5588 19.7655 10.2272
810 1 19.7487 16.6149 13.4278
811 1 19.769 13.4481 13.4484
812 1 21.326 15.0342 15.0173
813 1 19.7671 13.4493 16.6056
814 1 21.3384 15.0422 18.1885
815 1 19.7473 13.4384 19.7689
816 1 21.3544 15.0368 21.3684
817 1 19.7414 13.4387 22.9493
818 1 21.339 15.0261 24.5155
819 1 19.7634 13.4546 26.1026
820 1 21.3418 15.0336 27.6925
821 1 19.7544 13.4512 29.2682
822 1 21.3382 15.0296 30.8572
823 1 19.7608 13.4544 32.4413
824 1 21.3515 15.0284 34.0276
825 1 19.7644 13.4512 35.6087
826 1 21.3402 15.044 37.1902
827 1 16.5804 19.7787 13.4189
828 1 22.9135 19.7655 13.4097
829 1 19.7301 19.7574 10.2383
830 1 21.309 21.331 15.0019
831 1 18.1838 15.0333 15.0247
832 1 21.3421 18.187 18.1806
833 1 19.7508 16.6109 19.7752
834 1 21.3367 18.2428 21.3677
835 1 19.763 16.6031 22.947
836 1 21.3425 18.181 24.5433
837 1 19.7516 16.6036 26.1163
838 1 21.3464 18.1929 27.701
839 1 19.7528 16.612 29.282
840 1 21.3281 18.2071 30.8727
841 1 19.7608 16.6224 32.4416
842 1 21.3514 18.2003 34.0335
843 1 19.7602 16.6264 35.6028
844 1 21.3371 18.2083 37.1888
845 1 21.3253 18.1828 15.0016
846 1 19.7397 19.7652 13.4246
847 1 19.7421 19.7579 19.7521
848 1 19.7196 19.7517 22.9825
849 1 21.3126 21.3277 24.5545
850 1 19.7505 19.767 26.128
851 1 21.3396 21.3513 27.7093
852 1 19.7485 19.766 29.296
853 1 21.3376 21.3686 30.8654
854 1 19.7567 19.7826 32.4344
855 1 21.3493 21.3652 34.0313
856 1 19.7641 19.7739 35.6185
857 1 21.3418 21.3585 37.192
858 1 22.9344 13.4505 10.2696
859 1 24.5168 15.0366 11.8536
860 1 22.9355 13.4391 13.4439
861 1 24.5279 15.0242 15.0153
862 1 22.9258 13.4571 16.6131
863 1 24.5082 15.0377 18.1968
864 1 22.9274 13.4489 19.7809
865 1 24.502 15.0227 21.3619
866 1 22.9302 13.4543 22.9471
867 1 24.5114 15.0341 24.5335
868 1 22.9319 13.4419 26.1114
869 1 24.5048 15.0223 27.6903
870 1 22.9237 13.458 29.2739
871 1 24.5023 15.0375 30.8639
872 1 22.9344 13.4581 32.4551
873 1 24.4995 15.033 34.0297
874 1 22.9249 13.4539 35.6063
875 1 24.5199 15.0377 37.1927
876 1 19.7661 13.4449 10.2705
877 1 21.3351 15.0153 11.8488
878 1 22.9226 16.6012 13.4272
879 1 26.1421 19.7489 16.5463
880 1 22.9216 16.5955 16.6155
881 1 24.5255 18.2272 18.1746
882 1 22.9118 16.6136 19.7845
883 1 24.5213 18.1993 21.3654
884 1 22.9186 16.6138 22.9351
885 1 24.5219 18.1832 24.5434
886 1 22.9266 16.6108 26.131
887 1 24.5052 18.2035 27.6968
888 1 22.9275 16.6097 29.2777
889 1 24.5114 18.2173 30.8691
890 1 22.9335 16.6265 32.4543
891 1 24.5045 18.1944 34.0177
892 1 22.9345 16.6163 35.5992
893 1 24.5184 18.1982 37.1922
894 1 22.9244 16.6031 10.261
895 1 21.3367 18.1805 11.8476
896 1 24.5163 18.1784 15.0057
897 1 24.54 21.3308 14.976
898 1 22.9277 19.7406 19.7764
899 1 24.4464 21.3932 21.3095
900 1 22.9509 19.7454 22.976
901 1 24.5304 21.354 24.553
902 1 22.9402 19.7754 26.1205
903 1 24.508 21.3581 27.7005
904 1 22.9341 19.7744 29.2829
905 1 24.5126 21.3576 30.8594
906 1 22.9245 19.7727 32.4449
907 1 24.5045 21.3841 34.0366
908 1 22.9344 19.7934 35.61
909 1 24.5168 21.3771 37.1972
910 1 26.1018 13.4557 10.2852
911 1 26.0916 13.4418 13.4328
912 1 27.6756 15.0307 15.0136
913 1 26.0851 13.438 16.6144
914 1 27.6752 15.0312 18.208
915 1 26.0985 13.4447 19.7798
916 1 27.6722 15.0301 21.3626
917 1 26.0858 13.4491 22.9448
918 1 27.6741 15.0399 24.5394
919 1 26.0926 13.4552 26.1128
920 1 27.6744 15.0294 27.6954
921 1 26.0823 13.4538 29.2738
922 1 27.669 15.0286 30.8599
923 1 26.0916 13.4517 32.4421
924 1 27.6831 15.04 34.0268
925 1 26.0841 13.4495 35.6109
926 1 27.6734 15.0454 37.1909
927 1 26.1017 16.599 13.4391
928 1 27.6863 18.1726 15.0059
929 1 26.097 16.6115 16.6007
930 1 27.6948 18.1875 18.1842
931 1 26.0902 16.6029 19.7575
932 1 27.6928 18.181 21.3663
933 1 26.0948 16.6219 22.9382
934 1 27.6792 18.1889 24.5284
935 1 26.1046 16.6081 26.1096
936 1 27.6759 18.2001 27.7049
937 1 26.0969 16.6129 29.2858
938 1 27.6671 18.1993 30.8669
939 1 26.1018 16.6128 32.4398
940 1 27.6709 18.2095 34.0246
941 1 26.0939 16.6326 35.6003
942 1 27.6723 18.2045 37.1742
943 1 24.4977 18.186 11.839
944 1 26.091 16.6008 10.2718
945 1 26.1079 19.7608 13.4347
946 1 24.5677 21.1267 18.127
947 1 26.1328 19.7476 19.7844
948 1 26.0808 19.7616 22.9323
949 1 27.6845 21.3702 24.5393
950 1 26.0986 19.7822 26.118
951 1 27.6729 21.3739 27.6979
952 1 26.0901 19.7815 29.2743
953 1 27.6805 21.382 30.8713
954 1 26.0957 19.7863 32.4438
955 1 27.6813 21.3791 34.0283
956 1 26.0977 19.7894 35.6204
957 1 27.6777 21.3579 37.2022
958 1 16.5655 19.7764 16.6127
959 1 15.0163 21.3718 30.8667
960 1 18.1886 21.3459 24.5252
961 1 18.1644 18.1746 18.185
962 1 14.9959 18.1907 21.3547
963 1 26.0847 19.7576 10.255
964 1 27.67 15.0216 11.8666
965 1 27.7033 21.3552 21.37
966 1 16.6043 16.6042 10.2677
967 1 27.6692 21.3701 15.0254
968 1 14.9971 21.353 27.7084
969 1 27.7088 21.3251 18.1587
970 1 15.0022 18.1975 18.1934
971 1 16.584 16.6073 16.6026
972 1 24.4894 21.3312 11.8278
973 1 18.1502 21.3227 21.3987
974 1 18.1492 21.3484 11.828
975 1 16.5983 13.4474 13.4513
976 1 22.915 19.7677 10.2581
977 1 27.6892 18.1748 11.8513
978 1 14.9862 15.0322 15.0326
979 1 22.8992 19.7549 16.5715
980 1 27.6968 21.3368 11.8361
981 1 21.3334 21.3416 11.8365
982 1 18.1629 21.347 15.0082
983 1 14.9945 21.3409 24.5499
984 1 16.5754 19.7687 19.7853
985 1 14.9983 21.3534 18.1903
986 1 18.1525 21.3397 18.175
987 1 21.4014 21.3803 18.2347
988 1 14.9802 21.3457 11.8283
989 1 14.9983 21.3403 21.3691
990 1 14.9946 21.361 15.0308
991 1 29.2658 13.4375 10.2893
992 1 30.8535 15.0257 11.8645
993 1 29.2612 13.4409 13.4475
994 1 30.8429 15.0209 15.0352
995 1 29.2619 13.4338 16.6141
996 1 30.8585 15.0247 18.1967
997 1 29.2556 13.4435 19.7753
998 1 30.8402 15.0358 21.3679
999 1 29.2672 13.4401 22.9485
1000 1 30.8413 15.0295 24.5415
1001 1 29.2522 13.4597 26.1231
1002 1 30.8441 15.0383 27.6873
1003 1 29.2724 13.4511 29.2836
1004 1 30.8406 15.0372 30.8666
1005 1 29.2468 13.4601 32.4376